Zn++
# Li et al. Systematic Parametrization of Divalent Metal Ions for the OPC3, OPC,
# TIP3P-FB, and TIP4P-FB Water Models. J. Chem. Theory and Computation 16(7), 2020.
# https://pubs.acs.org/doi/10.1021/acs.jctc.0c00194
# This set of values is optimized for reproducing ion-oxygen distance (Table 3) using
# the TIP4P-FB water model
# all values in 'real' units (kcal/mol and Angstrom)

       1 atoms

       1 atom types

    0.0 1.0      xlo xhi
    0.0 1.0      ylo yhi
    0.0 1.0      zlo zhi

Masses

      1    64.929

Pair Coeffs #lj/cut/coul/long

      1    0.01314367 1.383

Atoms

      1    1  1  2.0    0.50000    0.50000    0.50000
