Cl-
# Kasper P. Jensen and William L. Jorgensen, J. Chem. Theory Comput. 2006, 2, 6, 1499–1509.

       1 atoms

       1 atom types

    0.0 1.0      xlo xhi
    0.0 1.0      ylo yhi
    0.0 1.0      zlo zhi

Masses

      1    35.453

Pair Coeffs #lj/cut/coul/long

      1    0.71 4.02

Atoms

      1    1  1  -1.0    0.50000    0.50000    0.50000
