I- optimized for TIP4P_EW water model
# In Suk Joung and Thomas E. Cheatham III, J. Phys. Chem. B 2008, 112, 30, 9020–9041.

       1 atoms

       1 atom types

    0.0 1.0      xlo xhi
    0.0 1.0      ylo yhi
    0.0 1.0      zlo zhi

Masses

      1    126.90

Pair Coeffs #lj/cut/coul/long

      1    0.041708    5.606793

Atoms

      1    1  1  -1.0    0.50000    0.50000    0.50000
