K+ 
# Aqvist, J. Ion-Water Interaction Potentials Derived from Free Energy Perturbation Slmulations J. Phys. Chem. 1990, 94, 8021– 8024

       1 atoms

       1 atom types

    0.0 1.0      xlo xhi
    0.0 1.0      ylo yhi
    0.0 1.0      zlo zhi

Masses

      1    39.0983

Pair Coeffs #lj/cut/coul/long

      1    0.000328 4.934628

Atoms

      1    1  1  1.0    0.50000    0.50000    0.50000
