LAMMPS data file Created by LigParGen - (Written by Leela S. Dodda)

      15 atoms
      14 bonds
      23 angles
      19 dihedrals
       7 impropers
 
      15 atom types
      14 bond types
      23 angle types
      19 dihedral types
       7 improper types
 
   -2.012410    47.987590 xlo xhi
   -1.850300    48.149700 ylo yhi
   -1.017950    48.982050 zlo zhi

Masses

       1     12.011  
       2     12.011  
       3     15.999  
       4     12.011  
       5     15.999  
       6     15.999  
       7     12.011  
       8      1.008  
       9      1.008  
      10      1.008  
      11      1.008  
      12      1.008  
      13      1.008  
      14      1.008  
      15      1.008  

Pair Coeffs 

       1      0.066  3.5000000 
       2      0.066  3.5000000 
       3      0.140  2.9000000 
       4      0.070  3.5500000 
       5      0.210  2.9600000 
       6      0.140  2.9000000 
       7      0.066  3.5000000 
       8      0.030  2.5000000 
       9      0.030  2.5000000 
      10      0.030  2.5000000 
      11      0.030  2.5000000 
      12      0.030  2.5000000 
      13      0.030  2.5000000 
      14      0.030  2.5000000 
      15      0.030  2.5000000 

Bond Coeffs 

       1   268.0000     1.5290 
       2   320.0000     1.4100 
       3   214.0000     1.3270 
       4   570.0000     1.2290 
       5   214.0000     1.3270 
       6   320.0000     1.4100 
       7   340.0000     1.0900 
       8   340.0000     1.0900 
       9   340.0000     1.0900 
      10   340.0000     1.0900 
      11   340.0000     1.0900 
      12   340.0000     1.0900 
      13   340.0000     1.0900 
      14   340.0000     1.0900 

Angle Coeffs 

       1     50.000    109.500
       2     83.000    116.900
       3     83.000    123.400
       4     69.900    118.180
       5     83.000    116.900
       6     37.500    110.700
       7     37.500    110.700
       8     37.500    110.700
       9     37.500    110.700
      10     37.500    110.700
      11     35.000    109.500
      12     35.000    109.500
      13     35.000    109.500
      14     83.000    123.400
      15     33.000    107.800
      16     33.000    107.800
      17     33.000    107.800
      18     33.000    107.800
      19     35.000    109.500
      20     33.000    107.800
      21     35.000    109.500
      22     33.000    107.800
      23     33.000    107.800

Dihedral Coeffs  

       1     -1.220     -0.126      0.422      0.000 
       2      0.000      5.124      0.000      0.000 
       3      4.669      5.124      0.000      0.000 
       4      0.000      0.000      0.468      0.000 
       5      0.000      0.000      0.198      0.000 
       6      0.000      0.000      0.300      0.000 
       7      0.000      0.000      0.300      0.000 
       8      4.669      5.124      0.000      0.000 
       9      0.000      0.000      0.300      0.000 
      10      0.000      0.000      0.468      0.000 
      11      0.000      0.000      0.198      0.000 
      12      0.000      0.000      0.300      0.000 
      13      0.000      0.000      0.300      0.000 
      14      0.000      0.000      0.468      0.000 
      15      0.000      0.000      0.198      0.000 
      16      0.000      5.124      0.000      0.000 
      17      0.000      0.000      0.198      0.000 
      18      0.000      0.000      0.300      0.000 
      19      0.000      0.000      0.198      0.000 

Improper Coeffs 

       1     10.500      -1       2 
       2      0.000      -1       2 
       3      0.000      -1       2 
       4      0.000      -1       2 
       5      0.000      -1       2 
       6      0.000      -1       2 
       7      0.000      -1       2 

Atoms 

     1      1      1 -0.28070000    1.000  1.00000  0.00000
     2      1      2 0.01710000   -0.520  1.00000  0.00000
     3      1      3 -0.32310000   -0.985  1.00000  1.35431
     4      1      4 0.57010000   -1.060 -0.22226  1.93502
     5      1      5 -0.49590000   -0.937 -1.29627  1.36526
     6      1      6 -0.31640000   -1.213 -0.04501  3.26928
     7      1      7 -0.04510000   -1.103 -1.25137  4.02168
     8      1      8 0.10110000    1.393  1.00129 -1.01795
     9      1      9 0.10110000    1.391  0.12572  0.52971
    10      1     10 0.10110000    1.376  1.88379  0.52868
    11      1     11 0.12390000   -0.921  0.15139 -0.56659
    12      1     12 0.12390000   -0.891  1.91359 -0.47627
    13      1     13 0.10760000   -0.989 -0.98456  5.07574
    14      1     14 0.10760000   -0.218 -1.82392  3.72415
    15      1     15 0.10760000   -2.012 -1.85030  3.90293

Bonds 

     1      1      2      1
     2      2      3      2
     3      3      4      3
     4      4      5      4
     5      5      6      4
     6      6      7      6
     7      7      8      1
     8      8      9      1
     9      9     10      1
    10     10     11      2
    11     11     12      2
    12     12     13      7
    13     13     14      7
    14     14     15      7

Angles 

     1      1      1      2      3
     2      2      2      3      4
     3      3      3      4      5
     4      4      3      4      6
     5      5      4      6      7
     6      6      2      1      8
     7      7      2      1      9
     8      8      2      1     10
     9      9      1      2     11
    10     10      1      2     12
    11     11      6      7     13
    12     12      6      7     14
    13     13      6      7     15
    14     14      5      4      6
    15     15      8      1     10
    16     16     11      2     12
    17     17     13      7     14
    18     18      8      1      9
    19     19      3      2     11
    20     20     14      7     15
    21     21      3      2     12
    22     22      9      1     10
    23     23     13      7     15

Dihedrals

     1      1      4      3      2      1 
     2      2      5      4      3      2 
     3      3      7      6      4      3 
     4      4      8      1      2      3 
     5      5     13      7      6      4 
     6      6     11      2      1      8 
     7      7     11      2      1      9 
     8      8      6      4      3      2 
     9      9     12      2      1     10 
    10     10     10      1      2      3 
    11     11     14      7      6      4 
    12     12     12      2      1      9 
    13     13     12      2      1      8 
    14     14      9      1      2      3 
    15     15     11      2      3      4 
    16     16      7      6      4      5 
    17     17     15      7      6      4 
    18     18     11      2      1     10 
    19     19     12      2      3      4 

Impropers

     1      1      4      3      5      6 
     2      2      1      9      8      2 
     3      3      1     10      8      2 
     4      4      2      1     11      3 
     5      5      2      1      3     12 
     6      6      7     13     14      6 
     7      7      7     13     15      6 

