LAMMPS data file generated with LigParGen (israel.cabezadevaca@yale.edu)

      12 atoms
      11 bonds
      17 angles
      16 dihedrals
       1 impropers

      12 atom types
      11 bond types
      17 angle types
      16 dihedral types
       1 improper types

   -2.525000    47.475000 xlo xhi
   -1.664000    48.336000 ylo yhi
   -1.488000    48.512000 zlo zhi

Masses

       1     12.011
       2     15.999
       3     15.999
       4     15.999
       5     12.011
       6     12.011
       7      1.008
       8      1.008
       9      1.008
      10      1.008
      11      1.008
      12      1.008

Pair Coeffs

       1      0.070  3.5500000
       2      0.140  2.9000000
       3      0.210  2.9600000
       4      0.170  3.1200000
       5      0.066  3.5000000
       6      0.066  3.5000000
       7      0.030  2.5000000
       8      0.030  2.5000000
       9      0.030  2.5000000
      10      0.030  2.5000000
      11      0.030  2.5000000
      12      0.000  0.0000000

Bond Coeffs

       1   214.0000     1.3270
       2   570.0000     1.2290
       3   450.0000     1.3640
       4   320.0000     1.4100
       5   268.0000     1.5290
       6   340.0000     1.0900
       7   340.0000     1.0900
       8   340.0000     1.0900
       9   340.0000     1.0900
      10   340.0000     1.0900
      11   553.0000     0.9450

Angle Coeffs

       1     83.000    123.400
       2     70.130    117.450
       3     83.000    116.900
       4     50.000    109.500
       5     37.500    110.700
       6     37.500    110.700
       7     37.500    110.700
       8     35.000    109.500
       9     35.000    109.500
      10     35.000    113.000
      11     80.000    121.000
      12     37.500    110.700
      13     37.500    110.700
      14     33.000    107.800
      15     33.000    107.800
      16     33.000    107.800
      17     33.000    107.800

Dihedral Coeffs

       1      0.000      5.124      0.000      0.000
       2     -1.220     -0.126      0.422      0.000
       3      0.000      0.000      0.468      0.000
       4      0.000      0.000      0.468      0.000
       5      0.000      0.000      0.468      0.000
       6      0.000      0.000      0.198      0.000
       7      0.000      0.000      0.198      0.000
       8      0.000      5.500      0.000      0.000
       9      0.000      5.500      0.000      0.000
      10      4.669      5.124      0.000      0.000
      11      0.000      0.000      0.300      0.000
      12      0.000      0.000      0.300      0.000
      13      0.000      0.000      0.300      0.000
      14      0.000      0.000      0.300      0.000
      15      0.000      0.000      0.300      0.000
      16      0.000      0.000      0.300      0.000

Improper Coeffs

       1     10.500      -1       2

Atoms

     1      1      1   0.589708  1.45900 -0.07400  0.01300
     2      1      2  -0.316075  0.46100 -1.02200  0.18800
     3      1      3  -0.521319  1.26800  0.98800 -0.62500
     4      1      4  -0.548751  2.74000 -0.25400  0.54300
     5      1      5   0.030243 -0.81200 -0.76900 -0.37800
     6      1      6  -0.299103 -1.42400  0.48800  0.16700
     7      1      7   0.109289 -2.52500  0.43200  0.01900
     8      1      8   0.109289 -1.01900  1.37200 -0.33100
     9      1      9   0.109289 -1.27100  0.57200  1.28100
    10      1     10   0.123815 -0.71600 -0.64200 -1.48800
    11      1     11   0.123815 -1.43200 -1.66400 -0.16600
    12      1     12   0.489800  3.27000  0.57400  0.77800

Bonds

     1      1      2      1
     2      2      3      1
     3      3      4      1
     4      4      5      2
     5      5      6      5
     6      6      7      6
     7      7      8      6
     8      8      9      6
     9      9     10      5
    10     10     11      5
    11     11     12      4

Angles

     1      1      3      1      2
     2      2      4      1      2
     3      3      5      2      1
     4      4      6      5      2
     5      5      7      6      5
     6      6      8      6      5
     7      7      9      6      5
     8      8     10      5      2
     9      9     11      5      2
    10     10     12      4      1
    11     11      4      1      3
    12     12     10      5      6
    13     13     11      5      6
    14     14      8      6      7
    15     15      9      6      7
    16     16      9      6      8
    17     17     11      5     10

Dihedrals

     1      1      5      2      1      3
     2      2      6      5      2      1
     3      3      7      6      5      2
     4      4      8      6      5      2
     5      5      9      6      5      2
     6      6     10      5      2      1
     7      7     11      5      2      1
     8      8     12      4      1      2
     9      9     12      4      1      3
    10     10      5      2      1      4
    11     11     10      5      6      7
    12     12     11      5      6      7
    13     13     10      5      6      8
    14     14     11      5      6      8
    15     15     10      5      6      9
    16     16     11      5      6      9

Impropers

     1      1      2      1      3      4


