LAMMPS data file generated with LigParGen (israel.cabezadevaca@yale.edu)

      10 atoms
      10 bonds
      17 angles
      19 dihedrals
       1 impropers

      10 atom types
      10 bond types
      17 angle types
      19 dihedral types
       1 improper types

   -2.065000    47.935000 xlo xhi
   -1.301000    48.699000 ylo yhi
   -1.234000    48.766000 zlo zhi

Masses

       1     15.999
       2     15.999
       3     15.999
       4     12.011
       5     12.011
       6     12.011
       7      1.008
       8      1.008
       9      1.008
      10      1.008

Pair Coeffs

       1      0.140  2.9000000
       2      0.140  2.9000000
       3      0.210  2.9600000
       4      0.066  3.5000000
       5      0.066  3.5000000
       6      0.070  3.5500000
       7      0.030  2.5000000
       8      0.030  2.5000000
       9      0.030  2.5000000
      10      0.030  2.5000000

Bond Coeffs

       1   214.0000     1.3270
       2   214.0000     1.3270
       3   570.0000     1.2290
       4   320.0000     1.4100
       5   268.0000     1.5290
       6   340.0000     1.0900
       7   340.0000     1.0900
       8   340.0000     1.0900
       9   340.0000     1.0900
      10   320.0000     1.4100

Angle Coeffs

       1     70.130    117.450
       2     83.000    123.400
       3     83.000    116.900
       4     50.000    109.500
       5     35.000    109.500
       6     35.000    109.500
       7     37.500    110.700
       8     37.500    110.700
       9     83.000    123.400
      10     37.500    110.700
      11     37.500    110.700
      12     83.000    116.900
      13     33.000    107.800
      14     35.000    109.500
      15     33.000    107.800
      16     35.000    109.500
      17     50.000    109.500

Dihedral Coeffs

       1      4.669      5.124      0.000      0.000
       2     -1.220     -0.126      0.422      0.000
       3      0.000      0.000      0.198      0.000
       4      0.000      0.000      0.198      0.000
       5      0.000      0.000      0.468      0.000
       6      0.000      0.000      0.468      0.000
       7      4.669      5.124      0.000      0.000
       8      0.000      5.124      0.000      0.000
       9      0.000      5.124      0.000      0.000
      10      0.000      0.000      0.468      0.000
      11      0.000      0.000      0.300      0.000
      12      0.000      0.000      0.300      0.000
      13      0.000      0.000      0.468      0.000
      14      0.000      0.000      0.300      0.000
      15      0.000      0.000      0.300      0.000
      16      0.000      0.000      0.198      0.000
      17      0.000      0.000      0.198      0.000
      18     -0.550      0.000      0.000      0.000
      19     -1.220     -0.126      0.422      0.000

Improper Coeffs

       1     10.500      -1       2

Atoms

     1      1      1  -0.324734 -0.01800  1.11900 -0.11200
     2      1      2  -0.324709 -0.01800 -1.12000  0.11200
     3      1      3  -0.368343  1.98200  0.00000  0.00000
     4      1      4  -0.041460 -1.35300  0.72800  0.17200
     5      1      5  -0.042098 -1.35300 -0.72700 -0.17200
     6      1      6   0.559059  0.76000  0.00000  0.00000
     7      1      7   0.135599 -2.06500  1.30200 -0.42600
     8      1      8   0.135599 -1.54800  0.90700  1.23500
     9      1      9   0.135544 -2.06500 -1.30100  0.42700
    10      1     10   0.135543 -1.55000 -0.90600 -1.23400

Bonds

     1      1      1      6
     2      2      2      6
     3      3      3      6
     4      4      4      1
     5      5      5      4
     6      6      7      4
     7      7      8      4
     8      8      9      5
     9      9     10      5
    10     10      5      2

Angles

     1      1      2      6      1
     2      2      3      6      1
     3      3      4      1      6
     4      4      5      4      1
     5      5      7      4      1
     6      6      8      4      1
     7      7      9      5      4
     8      8     10      5      4
     9      9      3      6      2
    10     10      7      4      5
    11     11      8      4      5
    12     12      6      2      5
    13     13      8      4      7
    14     14      2      5      9
    15     15     10      5      9
    16     16      2      5     10
    17     17      4      5      2

Dihedrals

     1      1      4      1      6      2
     2      2      5      4      1      6
     3      3      7      4      1      6
     4      4      8      4      1      6
     5      5      9      5      4      1
     6      6     10      5      4      1
     7      7      5      2      6      1
     8      8      4      1      6      3
     9      9      5      2      6      3
    10     10      2      5      4      7
    11     11      9      5      4      7
    12     12     10      5      4      7
    13     13      2      5      4      8
    14     14      9      5      4      8
    15     15     10      5      4      8
    16     16      6      2      5      9
    17     17      6      2      5     10
    18     18      1      4      5      2
    19     19      6      2      5      4

Impropers

     1      1      1      6      2      3


