LAMMPS data file Created by LigParGen - (Written by Leela S. Dodda)

      15 atoms
      14 bonds
      23 angles
      19 dihedrals
       7 impropers
 
      15 atom types
      14 bond types
      23 angle types
      19 dihedral types
       7 improper types
 
   -2.011740    47.988260 xlo xhi
    0.097060    50.097060 ylo yhi
   -3.154030    46.845970 zlo zhi

Masses

       1     15.999  
       2     12.011  
       3     15.999  
       4     15.999  
       5     12.011  
       6     12.011  
       7     12.011  
       8      1.008  
       9      1.008  
      10      1.008  
      11      1.008  
      12      1.008  
      13      1.008  
      14      1.008  
      15      1.008  

Pair Coeffs 

       1      0.210  2.9600000 
       2      0.070  3.5500000 
       3      0.140  2.9000000 
       4      0.140  2.9000000 
       5      0.066  3.5000000 
       6      0.066  3.5000000 
       7      0.066  3.5000000 
       8      0.030  2.5000000 
       9      0.030  2.5000000 
      10      0.030  2.5000000 
      11      0.030  2.5000000 
      12      0.030  2.5000000 
      13      0.030  2.5000000 
      14      0.030  2.5000000 
      15      0.030  2.5000000 

Bond Coeffs 

       1   570.0000     1.2290 
       2   214.0000     1.3270 
       3   214.0000     1.3270 
       4   320.0000     1.4100 
       5   320.0000     1.4100 
       6   268.0000     1.5290 
       7   340.0000     1.0900 
       8   340.0000     1.0900 
       9   340.0000     1.0900 
      10   340.0000     1.0900 
      11   340.0000     1.0900 
      12   340.0000     1.0900 
      13   340.0000     1.0900 
      14   340.0000     1.0900 

Angle Coeffs 

       1     83.000    123.400
       2     83.000    123.400
       3     83.000    116.900
       4     83.000    116.900
       5     50.000    109.500
       6     35.000    109.500
       7     35.000    109.500
       8     37.500    110.700
       9     37.500    110.700
      10     37.500    110.700
      11     35.000    109.500
      12     35.000    109.500
      13     35.000    109.500
      14     33.000    107.800
      15     33.000    107.800
      16     37.500    110.700
      17     33.000    107.800
      18     69.900    118.180
      19     33.000    107.800
      20     33.000    107.800
      21     33.000    107.800
      22     37.500    110.700
      23     33.000    107.800

Dihedral Coeffs  

       1      0.000      5.124      0.000      0.000 
       2      0.000      5.124      0.000      0.000 
       3     -1.220     -0.126      0.422      0.000 
       4      0.000      0.000      0.468      0.000 
       5      0.000      0.000      0.198      0.000 
       6      0.000      0.000      0.198      0.000 
       7      0.000      0.000      0.300      0.000 
       8      4.669      5.124      0.000      0.000 
       9      0.000      0.000      0.300      0.000 
      10      0.000      0.000      0.198      0.000 
      11      0.000      0.000      0.198      0.000 
      12      0.000      0.000      0.198      0.000 
      13      0.000      0.000      0.468      0.000 
      14      0.000      0.000      0.300      0.000 
      15      0.000      0.000      0.300      0.000 
      16      0.000      0.000      0.300      0.000 
      17      0.000      0.000      0.300      0.000 
      18      0.000      0.000      0.468      0.000 
      19      4.669      5.124      0.000      0.000 

Improper Coeffs 

       1     10.500      -1       2 
       2      0.000      -1       2 
       3      0.000      -1       2 
       4      0.000      -1       2 
       5      0.000      -1       2 
       6      0.000      -1       2 
       7      0.000      -1       2 

Atoms 

     1      1      1 -0.49440000    1.000  1.00000  0.00000
     2      1      2 0.57480000   -0.223  1.00000  0.00000
     3      1      3 -0.32880000   -1.023  1.00000  1.10234
     4      1      4 -0.32510000   -1.024  0.99861 -1.10290
     5      1      5 0.02330000   -0.340  1.00000  2.36095
     6      1      6 -0.03740000   -0.341  0.99702 -2.36128
     7      1      7 -0.25160000   -1.363  0.99819  3.47610
     8      1      8 0.10460000    0.289  0.10525  2.43386
     9      1      9 0.10460000    0.287  1.89585  2.43492
    10      1     10 0.10290000   -0.875  0.99685  4.45447
    11      1     11 0.10290000   -2.012  1.87718  3.40445
    12      1     12 0.10290000   -2.011  0.11809  3.40254
    13      1     13 0.10710000    0.274  1.89689 -2.45868
    14      1     14 0.10710000   -1.093  0.99851 -3.15403
    15      1     15 0.10710000    0.273  0.09706 -2.45671

Bonds 

     1      1      2      1
     2      2      3      2
     3      3      4      2
     4      4      5      3
     5      5      6      4
     6      6      7      5
     7      7      8      5
     8      8      9      5
     9      9     10      7
    10     10     11      7
    11     11     12      7
    12     12     13      6
    13     13     14      6
    14     14     15      6

Angles 

     1      1      1      2      3
     2      2      1      2      4
     3      3      2      3      5
     4      4      2      4      6
     5      5      3      5      7
     6      6      3      5      8
     7      7      3      5      9
     8      8      5      7     10
     9      9      5      7     11
    10     10      5      7     12
    11     11      4      6     13
    12     12      4      6     14
    13     13      4      6     15
    14     14     11      7     12
    15     15     13      6     15
    16     16      7      5      9
    17     17     10      7     12
    18     18      3      2      4
    19     19     13      6     14
    20     20     14      6     15
    21     21     10      7     11
    22     22      7      5      8
    23     23      8      5      9

Dihedrals

     1      1      5      3      2      1 
     2      2      6      4      2      1 
     3      3      7      5      3      2 
     4      4     10      7      5      3 
     5      5     13      6      4      2 
     6      6     14      6      4      2 
     7      7     12      7      5      8 
     8      8      5      3      2      4 
     9      9     11      7      5      9 
    10     10      9      5      3      2 
    11     11     15      6      4      2 
    12     12      8      5      3      2 
    13     13     11      7      5      3 
    14     14     12      7      5      9 
    15     15     10      7      5      8 
    16     16     10      7      5      9 
    17     17     11      7      5      8 
    18     18     12      7      5      3 
    19     19      6      4      2      3 

Impropers

     1      1      2      1      3      4 
     2      2      5      3      7      8 
     3      3      5      9      3      7 
     4      4      7     10     11      5 
     5      5      7     10     12      5 
     6      6      6      4     13     14 
     7      7      6      4     13     15 

