This forcefield file sets a 13-Angstrom cutoff, recommended for liquid-vapor simulations 
# [Vega & de Miguel, J Chem Phys 126:154707 (2007), Vega et al, Faraday Discuss 141:251 (2009)]. Note that the original TIP4P/2005 model was run with an 8.5 Angstrom cutoff [Abascal & Vega, J Chem Phys 123:234505 (2005)].
# Bond and angle coefficients of 1000 are added to keep the water molecule together
# during e.g. energy minimization in LAMMPS when `fix shake` is not active. 

       3 atoms
       2 bonds
       1 angles

       2 atom types
       1 bond types
       1 angle types

    0.0 3.1      xlo xhi
    0.0 3.1      ylo yhi
    0.0 3.1      zlo zhi

Masses

      1    1.00794
      2    15.9994

Pair Coeffs #lj/cut/tip4p/long 2 1 1 1 0.1546 13.0

      1    0.000   0.000
      2    0.18520 3.1589

Bond Coeffs #harmonic

      1    1000 0.9572

Angle Coeffs #harmonic

      1    1000 104.52 

Atoms

      1    1  2 -1.1128    1.55000    1.55000    1.50000
      2    1  1  0.5564    1.55000    2.36649    2.07736
      3    1  1  0.5564    1.55000    0.73351    2.07736

Bonds

      1   1      1      2
      2   1      1      3

Angles

      1   1      2      1      3
