Optimized TIP3P parameters to use with Ewald methods for long-range electrostatics. (e.g. pppm 1.0e-5)
# Price & Brooks, J Chem Phys 121:10096 (2004).

       3 atoms
       2 bonds
       1 angles

       2 atom types
       1 bond types
       1 angle types

    0.0 3.1      xlo xhi
    0.0 3.1      ylo yhi
    0.0 3.1      zlo zhi

Masses

      1    1.00794
      2    15.9994

Pair Coeffs #lj/cut/coul/long 13.0

      1    0.000 0.000
      2    0.102 3.188

Bond Coeffs #harmonic

      1    450.0 0.9572

Angle Coeffs #harmonic

      1    55.0 104.52 

Atoms

      1    1  2 -0.830    1.55000    1.55000    1.50000
      2    1  1  0.415    1.55000    2.36649    2.07736
      3    1  1  0.415    1.55000    0.73351    2.07736

Bonds

      1   1      1      2
      2   1      1      3

Angles

      1   1      2      1      3
