SPC water model
# Berendsen et al, in "Intermolecular forces", p. 331 (1981). Command 'fix shake' is needed.
# Bond and angle coefficients of 1000 are added to keep the water molecule together
# during e.g. energy minimization in LAMMPS when `fix shake` is not active.

       3 atoms
       2 bonds
       1 angles

       2 atom types
       1 bond types
       1 angle types

    0.0 3.1      xlo xhi
    0.0 3.1      ylo yhi
    0.0 3.1      zlo zhi

Masses

      1    1.00794
      2    15.9994

Pair Coeffs #lj/cut/coul/long 10.0

      1    0.0000 0.0000
      2    0.1554 3.16557 

Bond Coeffs #harmonic

      1    1000 1.0  

Angle Coeffs #harmonic

      1    1000 109.47

Atoms

      1    1  2 -0.82    1.55000    1.55000    1.50000
      2    1  1  0.41    1.55000    2.36649  	 2.07736
      3    1  1  0.41    1.55000    0.73351    2.07736

Bonds

      1   1      1      2
      2   1      1      3

Angles

      1   1      2      1      3
