OPC3 water model
# Original model from Izadi, Anandakrishnan, and Onufriev, Building Water Models: 
# A Different Approach. J. Phys. Chem. Lett. 2014, 5, 21, 3863–3871
# https://doi.org/10.1021/jz501780a
# Table 2.
# real units (kcal/mol, Angstrom) 
# Command 'fix shake' is needed.
# LJ and couloumb cutoffs of 9 and 7 angstroms are adopted from the TIP3B-FB paper
# Bond and angle coefficients of 1000 are added to keep the water molecule together
# during e.g. energy minimization in LAMMPS when `fix shake` is not active.

       3 atoms
       2 bonds
       1 angles

       2 atom types
       1 bond types
       1 angle types

    0.0 3.1      xlo xhi
    0.0 3.1      ylo yhi
    0.0 3.1      zlo zhi

Masses

      1    1.00794
      2    15.9994

Pair Coeffs #lj/cut/tip4p/long 2 1 1 1 0.1594 9.0 7.0

      1    0.0000 0.0000
      2    0.21280 3.16655 

Bond Coeffs #harmonic

      1    1000 0.8724  

Angle Coeffs #harmonic

      1    1000 103.6

Atoms

      1    1  2 -1.3582    1.55000    1.55000    1.50000
      2    1  1  0.6791    1.55000    2.36649    2.07736
      3    1  1  0.6791    1.55000    0.73351    2.07736

Bonds

      1   1      1      2
      2   1      1      3

Angles

      1   1      2      1      3
